data.Ti_bcc_ortho (written by ASE) 

2 	 atoms 
1  atom types
0.0      3.2543739999999999  xlo xhi
0.0      3.2543739999999999  ylo yhi
0.0      3.2543739999999999  zlo zhi


Atoms 

     1   1                       0                       0                       0
     2   1      1.6271869999999999      1.6271869999999999      1.6271869999999999
