data.Ti_hex_ortho (written by ASE) 

6 	 atoms 
1  atom types
0.0      7.9310096941731105  xlo xhi
0.0      4.5789705456291303  ylo yhi
0.0               2.8307696  zlo zhi


Atoms 

     1   1                       0                       0                       0
     2   1      1.3218336256955028      2.2894875648951429               1.4153848
     3   1      2.6436712213910525 -2.2920805776226029e-06               1.4153848
     4   1      3.9655048470865553      2.2894852728145652                       0
     5   1       5.287338472782058  2.2920805777653237e-06               1.4153848
     6   1      6.6091760684776082      2.2894829807339874               1.4153848
