data.Ti_hcp_ortho (written by ASE) 

4 	 atoms 
1  atom types
0.0      2.9389455567502591  xlo xhi
0.0      5.0904030249702501  ylo yhi
0.0      4.6468949999999998  zlo zhi


Atoms 

     1   1                       0                       0                       0
     2   1      1.4694727783751296      2.5452015124851251                       0
     3   1      1.4694727783751296     0.84840050416170831      2.3234474999999999
     4   1                       0      3.3936020166468333      2.3234474999999999
